<?xml version="1.0" encoding="UTF-8"?>

<!-- generated on 2025-11-11 21:45:41 by Eclipse SUMO GUI Version 1.23.1
<sumoConfiguration xmlns:xsi="http://www.w3.org/2001/XMLSchema-instance" xsi:noNamespaceSchemaLocation="http://sumo.dlr.de/xsd/sumoConfiguration.xsd">

    <input>
        <net-file value="/home/jaathavan/Projects/Compative-Analysis-of-Street-Intersections-and-Optimization-Strategies/signalized/quickstart_output/sumo_configs/webster/intersection.net.xml"/>
        <route-files value="/home/jaathavan/Projects/Compative-Analysis-of-Street-Intersections-and-Optimization-Strategies/signalized/quickstart_output/sumo_configs/webster/intersection.rou.xml"/>
    </input>

    <output>
        <summary-output value="/home/jaathavan/Projects/Compative-Analysis-of-Street-Intersections-and-Optimization-Strategies/signalized/quickstart_output/sumo_configs/webster/summary.xml"/>
        <tripinfo-output value="/home/jaathavan/Projects/Compative-Analysis-of-Street-Intersections-and-Optimization-Strategies/signalized/quickstart_output/sumo_configs/webster/tripinfo.xml"/>
    </output>

    <time>
        <begin value="0"/>
        <end value="3600.0"/>
        <step-length value="0.2"/>
    </time>

    <processing>
        <time-to-teleport value="-1"/>
    </processing>

</sumoConfiguration>
-->

<tripinfos xmlns:xsi="http://www.w3.org/2001/XMLSchema-instance" xsi:noNamespaceSchemaLocation="http://sumo.dlr.de/xsd/tripinfo_file.xsd">
    <tripinfo id="flow_N_T_passenger.0" depart="0.00" departLane="north_in_1" departPos="5.10" departSpeed="13.89" departDelay="0.00" arrival="28.60" arrivalLane="south_out_1" arrivalPos="189.60" arrivalSpeed="13.89" duration="28.60" routeLength="394.90" waitingTime="0.00" waitingCount="0" stopTime="0.00" timeLoss="0.00" rerouteNo="0" devices="tripinfo_flow_N_T_passenger.0" vType="passenger" speedFactor="1.08" vaporized=""/>
    <tripinfo id="flow_S_T_passenger.0" depart="0.00" departLane="south_in_1" departPos="5.10" departSpeed="13.89" departDelay="0.00" arrival="28.60" arrivalLane="north_out_1" arrivalPos="189.60" arrivalSpeed="13.89" duration="28.60" routeLength="394.90" waitingTime="0.00" waitingCount="0" stopTime="0.00" timeLoss="0.00" rerouteNo="0" devices="tripinfo_flow_S_T_passenger.0" vType="passenger" speedFactor="1.01" vaporized=""/>
    <tripinfo id="flow_E_T_passenger.0" depart="0.00" departLane="east_in_1" departPos="5.10" departSpeed="13.89" departDelay="0.00" arrival="35.00" arrivalLane="west_out_1" arrivalPos="189.60" arrivalSpeed="13.88" duration="35.00" routeLength="394.90" waitingTime="0.00" waitingCount="0" stopTime="0.00" timeLoss="6.56" rerouteNo="0" devices="tripinfo_flow_E_T_passenger.0" vType="passenger" speedFactor="1.05" vaporized=""/>
    <tripinfo id="flow_W_T_passenger.0" depart="0.00" departLane="west_in_1" departPos="5.10" departSpeed="13.89" departDelay="0.00" arrival="35.00" arrivalLane="east_out_1" arrivalPos="189.60" arrivalSpeed="13.88" duration="35.00" routeLength="394.90" waitingTime="0.00" waitingCount="0" stopTime="0.00" timeLoss="6.56" rerouteNo="0" devices="tripinfo_flow_W_T_passenger.0" vType="passenger" speedFactor="1.18" vaporized=""/>
    <tripinfo id="flow_N_R_passenger.0" depart="0.00" departLane="north_in_0" departPos="5.10" departSpeed="13.89" departDelay="0.00" arrival="40.60" arrivalLane="east_out_0" arrivalPos="189.60" arrivalSpeed="13.87" duration="40.60" routeLength="397.32" waitingTime="0.00" waitingCount="0" stopTime="0.00" timeLoss="11.35" rerouteNo="0" devices="tripinfo_flow_N_R_passenger.0" vType="passenger" speedFactor="1.06" vaporized=""/>
    <tripinfo id="flow_W_R_passenger.0" depart="0.00" departLane="west_in_0" departPos="5.10" departSpeed="13.18" departDelay="0.00" arrival="45.00" arrivalLane="north_out_0" arrivalPos="189.60" arrivalSpeed="13.17" duration="45.00" routeLength="397.32" waitingTime="0.00" waitingCount="0" stopTime="0.00" timeLoss="14.12" rerouteNo="0" devices="tripinfo_flow_W_R_passenger.0" vType="passenger" speedFactor="0.95" vaporized=""/>
    <tripinfo id="flow_E_R_passenger.0" depart="0.00" departLane="east_in_0" departPos="5.10" departSpeed="11.90" departDelay="0.00" arrival="46.40" arrivalLane="south_out_0" arrivalPos="189.60" arrivalSpeed="11.90" duration="46.40" routeLength="397.32" waitingTime="0.00" waitingCount="0" stopTime="0.00" timeLoss="12.09" rerouteNo="0" devices="tripinfo_flow_E_R_passenger.0" vType="passenger" speedFactor="0.86" vaporized=""/>
    <tripinfo id="flow_S_R_passenger.0" depart="0.00" departLane="south_in_0" departPos="5.10" departSpeed="13.00" departDelay="0.00" arrival="49.40" arrivalLane="west_out_0" arrivalPos="189.60" arrivalSpeed="13.00" duration="49.40" routeLength="397.32" waitingTime="5.40" waitingCount="2" stopTime="0.00" timeLoss="18.02" rerouteNo="0" devices="tripinfo_flow_S_R_passenger.0" vType="passenger" speedFactor="0.94" vaporized=""/>
    <tripinfo id="flow_W_T_truck.0" depart="1.20" departLane="west_in_1" departPos="12.10" departSpeed="10.40" departDelay="1.20" arrival="55.00" arrivalLane="east_out_1" arrivalPos="189.60" arrivalSpeed="11.79" duration="53.80" routeLength="387.90" waitingTime="1.80" waitingCount="1" stopTime="0.00" timeLoss="20.93" rerouteNo="0" devices="tripinfo_flow_W_T_truck.0" vType="truck" speedFactor="0.98" vaporized=""/>
    <tripinfo id="flow_E_T_truck.0" depart="1.20" departLane="east_in_1" departPos="12.10" departSpeed="10.40" departDelay="1.20" arrival="56.20" arrivalLane="west_out_1" arrivalPos="189.60" arrivalSpeed="11.79" duration="55.00" routeLength="387.90" waitingTime="2.20" waitingCount="1" stopTime="0.00" timeLoss="22.10" rerouteNo="0" devices="tripinfo_flow_E_T_truck.0" vType="truck" speedFactor="0.96" vaporized=""/>
    <tripinfo id="flow_N_R_truck.0" depart="1.20" departLane="north_in_0" departPos="12.10" departSpeed="10.40" departDelay="1.20" arrival="63.20" arrivalLane="east_out_0" arrivalPos="189.60" arrivalSpeed="11.79" duration="62.00" routeLength="390.32" waitingTime="9.40" waitingCount="3" stopTime="0.00" timeLoss="28.19" rerouteNo="0" devices="tripinfo_flow_N_R_truck.0" vType="truck" speedFactor="0.87" vaporized=""/>
    <tripinfo id="flow_W_R_truck.0" depart="1.20" departLane="west_in_0" departPos="12.10" departSpeed="8.46" departDelay="1.20" arrival="69.20" arrivalLane="north_out_0" arrivalPos="189.60" arrivalSpeed="11.79" duration="68.00" routeLength="390.32" waitingTime="8.60" waitingCount="2" stopTime="0.00" timeLoss="34.53" rerouteNo="0" devices="tripinfo_flow_W_R_truck.0" vType="truck" speedFactor="0.97" vaporized=""/>
    <tripinfo id="flow_E_R_truck.0" depart="1.40" departLane="east_in_0" departPos="12.10" departSpeed="7.61" departDelay="1.40" arrival="69.40" arrivalLane="south_out_0" arrivalPos="189.60" arrivalSpeed="11.79" duration="68.00" routeLength="390.32" waitingTime="7.80" waitingCount="1" stopTime="0.00" timeLoss="34.32" rerouteNo="0" devices="tripinfo_flow_E_R_truck.0" vType="truck" speedFactor="0.95" vaporized=""/>
    <tripinfo id="flow_E_T_bus.0" depart="3.00" departLane="east_in_1" departPos="15.10" departSpeed="2.02" departDelay="3.00" arrival="77.20" arrivalLane="west_out_1" arrivalPos="189.60" arrivalSpeed="11.09" duration="74.20" routeLength="384.90" waitingTime="7.60" waitingCount="1" stopTime="0.00" timeLoss="39.45" rerouteNo="0" devices="tripinfo_flow_E_T_bus.0" vType="bus" speedFactor="0.85" vaporized=""/>
    <tripinfo id="flow_W_T_bus.0" depart="3.00" departLane="west_in_1" departPos="15.10" departSpeed="2.02" departDelay="3.00" arrival="77.20" arrivalLane="east_out_1" arrivalPos="189.60" arrivalSpeed="11.09" duration="74.20" routeLength="384.90" waitingTime="8.60" waitingCount="1" stopTime="0.00" timeLoss="39.43" rerouteNo="0" devices="tripinfo_flow_W_T_bus.0" vType="bus" speedFactor="0.85" vaporized=""/>
    <tripinfo id="flow_S_R_truck.0" depart="1.20" departLane="south_in_0" departPos="12.10" departSpeed="7.66" departDelay="1.20" arrival="84.00" arrivalLane="west_out_0" arrivalPos="189.60" arrivalSpeed="11.79" duration="82.80" routeLength="390.32" waitingTime="26.40" waitingCount="4" stopTime="0.00" timeLoss="49.22" rerouteNo="0" devices="tripinfo_flow_S_R_truck.0" vType="truck" speedFactor="0.98" vaporized=""/>
    <tripinfo id="flow_N_R_bus.0" depart="3.00" departLane="north_in_0" departPos="15.10" departSpeed="2.02" departDelay="3.00" arrival="86.00" arrivalLane="east_out_0" arrivalPos="189.60" arrivalSpeed="11.09" duration="83.00" routeLength="387.32" waitingTime="17.60" waitingCount="3" stopTime="0.00" timeLoss="47.55" rerouteNo="0" devices="tripinfo_flow_N_R_bus.0" vType="bus" speedFactor="0.86" vaporized=""/>
    <tripinfo id="flow_W_L_passenger.0" depart="5.60" departLane="west_in_1" departPos="5.10" departSpeed="0.00" departDelay="5.60" arrival="89.20" arrivalLane="south_out_0" arrivalPos="189.60" arrivalSpeed="13.87" duration="83.60" routeLength="385.83" waitingTime="15.00" waitingCount="3" stopTime="0.00" timeLoss="55.29" rerouteNo="0" devices="tripinfo_flow_W_L_passenger.0" vType="passenger" speedFactor="1.17" vaporized=""/>
    <tripinfo id="flow_E_L_passenger.0" depart="5.60" departLane="east_in_1" departPos="5.10" departSpeed="0.00" departDelay="5.60" arrival="90.20" arrivalLane="north_out_0" arrivalPos="189.60" arrivalSpeed="12.87" duration="84.60" routeLength="385.83" waitingTime="13.80" waitingCount="3" stopTime="0.00" timeLoss="53.74" rerouteNo="0" devices="tripinfo_flow_E_L_passenger.0" vType="passenger" speedFactor="0.93" vaporized=""/>
    <tripinfo id="flow_S_T_truck.0" depart="1.20" departLane="south_in_1" departPos="12.10" departSpeed="10.52" departDelay="1.20" arrival="93.60" arrivalLane="north_out_1" arrivalPos="189.60" arrivalSpeed="11.79" duration="92.40" routeLength="387.90" waitingTime="44.40" waitingCount="2" stopTime="0.00" timeLoss="59.48" rerouteNo="0" devices="tripinfo_flow_S_T_truck.0" vType="truck" speedFactor="0.89" vaporized=""/>
    <tripinfo id="flow_S_R_bus.0" depart="3.40" departLane="south_in_0" departPos="15.10" departSpeed="0.00" departDelay="3.40" arrival="102.20" arrivalLane="west_out_0" arrivalPos="189.60" arrivalSpeed="11.09" duration="98.80" routeLength="387.32" waitingTime="21.60" waitingCount="2" stopTime="0.00" timeLoss="63.25" rerouteNo="0" devices="tripinfo_flow_S_R_bus.0" vType="bus" speedFactor="0.86" vaporized=""/>
    <tripinfo id="flow_E_R_bus.0" depart="3.60" departLane="east_in_0" departPos="15.10" departSpeed="0.00" departDelay="3.60" arrival="109.40" arrivalLane="south_out_0" arrivalPos="189.60" arrivalSpeed="11.09" duration="105.80" routeLength="387.32" waitingTime="25.80" waitingCount="11" stopTime="0.00" timeLoss="70.24" rerouteNo="0" devices="tripinfo_flow_E_R_bus.0" vType="bus" speedFactor="0.86" vaporized=""/>
    <tripinfo id="flow_W_R_bus.0" depart="3.40" departLane="west_in_0" departPos="15.10" departSpeed="5.04" departDelay="3.40" arrival="109.40" arrivalLane="north_out_0" arrivalPos="189.60" arrivalSpeed="11.09" duration="106.00" routeLength="387.32" waitingTime="26.40" waitingCount="10" stopTime="0.00" timeLoss="70.39" rerouteNo="0" devices="tripinfo_flow_W_R_bus.0" vType="bus" speedFactor="0.82" vaporized=""/>
    <tripinfo id="flow_S_T_passenger.2" depart="21.40" departLane="south_in_0" departPos="5.10" departSpeed="13.89" departDelay="0.01" arrival="112.40" arrivalLane="north_out_0" arrivalPos="189.60" arrivalSpeed="13.00" duration="91.00" routeLength="394.90" waitingTime="23.20" waitingCount="3" stopTime="0.00" timeLoss="62.44" rerouteNo="0" devices="tripinfo_flow_S_T_passenger.2" vType="passenger" speedFactor="1.03" vaporized=""/>
    <tripinfo id="flow_S_T_bus.0" depart="3.00" departLane="south_in_1" departPos="15.10" departSpeed="4.80" departDelay="3.00" arrival="115.80" arrivalLane="north_out_1" arrivalPos="189.60" arrivalSpeed="11.02" duration="112.80" routeLength="384.90" waitingTime="47.40" waitingCount="2" stopTime="0.00" timeLoss="77.94" rerouteNo="0" devices="tripinfo_flow_S_T_bus.0" vType="bus" speedFactor="0.79" vaporized=""/>
    <tripinfo id="flow_W_T_passenger.1" depart="14.40" departLane="west_in_0" departPos="5.10" departSpeed="13.89" departDelay="0.14" arrival="115.80" arrivalLane="east_out_0" arrivalPos="189.60" arrivalSpeed="13.87" duration="101.40" routeLength="394.90" waitingTime="23.60" waitingCount="4" stopTime="0.00" timeLoss="72.78" rerouteNo="0" devices="tripinfo_flow_W_T_passenger.1" vType="passenger" speedFactor="1.10" vaporized=""/>
    <tripinfo id="flow_E_T_passenger.1" depart="18.00" departLane="east_in_0" departPos="5.10" departSpeed="12.51" departDelay="0.18" arrival="118.60" arrivalLane="west_out_0" arrivalPos="189.60" arrivalSpeed="12.51" duration="100.60" routeLength="394.90" waitingTime="21.20" waitingCount="5" stopTime="0.00" timeLoss="69.04" rerouteNo="0" devices="tripinfo_flow_E_T_passenger.1" vType="passenger" speedFactor="0.90" vaporized=""/>
    <tripinfo id="flow_W_L_truck.0" depart="10.40" departLane="west_in_1" departPos="12.10" departSpeed="0.00" departDelay="10.40" arrival="121.40" arrivalLane="south_out_0" arrivalPos="189.60" arrivalSpeed="11.78" duration="111.00" routeLength="378.83" waitingTime="31.60" waitingCount="5" stopTime="0.00" timeLoss="78.15" rerouteNo="0" devices="tripinfo_flow_W_L_truck.0" vType="truck" speedFactor="0.90" vaporized=""/>
    <tripinfo id="flow_S_R_passenger.1" depart="29.60" departLane="south_in_0" departPos="5.10" departSpeed="13.89" departDelay="0.19" arrival="121.60" arrivalLane="west_out_0" arrivalPos="189.60" arrivalSpeed="13.54" duration="92.00" routeLength="397.32" waitingTime="18.80" waitingCount="3" stopTime="0.00" timeLoss="62.79" rerouteNo="0" devices="tripinfo_flow_S_R_passenger.1" vType="passenger" speedFactor="1.09" vaporized=""/>
    <tripinfo id="flow_N_T_truck.0" depart="1.20" departLane="north_in_1" departPos="12.10" departSpeed="10.52" departDelay="1.20" arrival="127.80" arrivalLane="south_out_1" arrivalPos="189.60" arrivalSpeed="11.79" duration="126.60" routeLength="387.90" waitingTime="75.40" waitingCount="2" stopTime="0.00" timeLoss="93.61" rerouteNo="0" devices="tripinfo_flow_N_T_truck.0" vType="truck" speedFactor="0.92" vaporized=""/>
    <tripinfo id="flow_N_T_bus.0" depart="3.00" departLane="north_in_1" departPos="15.10" departSpeed="5.67" departDelay="3.00" arrival="133.80" arrivalLane="south_out_1" arrivalPos="189.60" arrivalSpeed="10.60" duration="130.80" routeLength="384.90" waitingTime="75.00" waitingCount="1" stopTime="0.00" timeLoss="94.57" rerouteNo="0" devices="tripinfo_flow_N_T_bus.0" vType="bus" speedFactor="0.77" vaporized=""/>
    <tripinfo id="flow_N_L_passenger.0" depart="4.20" departLane="north_in_1" departPos="5.10" departSpeed="0.00" departDelay="4.20" arrival="136.20" arrivalLane="west_out_0" arrivalPos="189.60" arrivalSpeed="13.87" duration="132.00" routeLength="385.83" waitingTime="74.60" waitingCount="2" stopTime="0.00" timeLoss="103.49" rerouteNo="0" devices="tripinfo_flow_N_L_passenger.0" vType="passenger" speedFactor="1.05" vaporized=""/>
    <tripinfo id="flow_W_T_passenger.2" depart="28.60" departLane="west_in_0" departPos="5.10" departSpeed="13.89" departDelay="0.08" arrival="137.20" arrivalLane="east_out_0" arrivalPos="189.60" arrivalSpeed="13.87" duration="108.60" routeLength="394.90" waitingTime="32.00" waitingCount="5" stopTime="0.00" timeLoss="80.09" rerouteNo="0" devices="tripinfo_flow_W_T_passenger.2" vType="passenger" speedFactor="1.04" vaporized=""/>
    <tripinfo id="flow_E_L_truck.0" depart="10.40" departLane="east_in_1" departPos="12.10" departSpeed="0.00" departDelay="10.40" arrival="140.60" arrivalLane="north_out_0" arrivalPos="189.60" arrivalSpeed="11.64" duration="130.20" routeLength="378.83" waitingTime="50.80" waitingCount="6" stopTime="0.00" timeLoss="96.67" rerouteNo="0" devices="tripinfo_flow_E_L_truck.0" vType="truck" speedFactor="0.84" vaporized=""/>
    <tripinfo id="flow_N_T_passenger.1" depart="12.00" departLane="north_in_0" departPos="5.10" departSpeed="13.89" departDelay="0.12" arrival="141.00" arrivalLane="south_out_0" arrivalPos="189.60" arrivalSpeed="13.87" duration="129.00" routeLength="394.90" waitingTime="64.60" waitingCount="5" stopTime="0.00" timeLoss="100.47" rerouteNo="0" devices="tripinfo_flow_N_T_passenger.1" vType="passenger" speedFactor="1.18" vaporized=""/>
    <tripinfo id="flow_S_L_passenger.0" depart="4.40" departLane="south_in_1" departPos="5.10" departSpeed="0.00" departDelay="4.40" arrival="144.00" arrivalLane="east_out_0" arrivalPos="189.60" arrivalSpeed="11.47" duration="139.60" routeLength="385.83" waitingTime="66.00" waitingCount="6" stopTime="0.00" timeLoss="104.97" rerouteNo="0" devices="tripinfo_flow_S_L_passenger.0" vType="passenger" speedFactor="0.83" vaporized=""/>
    <tripinfo id="flow_W_R_passenger.1" depart="39.40" departLane="west_in_0" departPos="5.10" departSpeed="13.89" departDelay="0.18" arrival="146.60" arrivalLane="north_out_0" arrivalPos="189.60" arrivalSpeed="13.85" duration="107.20" routeLength="397.32" waitingTime="30.00" waitingCount="3" stopTime="0.00" timeLoss="77.98" rerouteNo="0" devices="tripinfo_flow_W_R_passenger.1" vType="passenger" speedFactor="1.02" vaporized=""/>
    <tripinfo id="flow_N_L_truck.0" depart="9.00" departLane="north_in_1" departPos="12.10" departSpeed="0.00" departDelay="9.00" arrival="148.20" arrivalLane="west_out_0" arrivalPos="189.60" arrivalSpeed="11.69" duration="139.20" routeLength="378.83" waitingTime="71.40" waitingCount="2" stopTime="0.00" timeLoss="105.83" rerouteNo="0" devices="tripinfo_flow_N_L_truck.0" vType="truck" speedFactor="0.84" vaporized=""/>
    <tripinfo id="flow_N_T_passenger.2" depart="23.80" departLane="north_in_0" departPos="5.10" departSpeed="13.89" departDelay="0.03" arrival="151.00" arrivalLane="south_out_0" arrivalPos="189.60" arrivalSpeed="13.87" duration="127.20" routeLength="394.90" waitingTime="55.40" waitingCount="4" stopTime="0.00" timeLoss="98.78" rerouteNo="0" devices="tripinfo_flow_N_T_passenger.2" vType="passenger" speedFactor="1.09" vaporized=""/>
    <tripinfo id="flow_S_T_passenger.3" depart="32.20" departLane="south_in_0" departPos="5.10" departSpeed="12.51" departDelay="0.12" arrival="151.20" arrivalLane="north_out_0" arrivalPos="189.60" arrivalSpeed="12.49" duration="119.00" routeLength="394.90" waitingTime="40.60" waitingCount="7" stopTime="0.00" timeLoss="87.36" rerouteNo="0" devices="tripinfo_flow_S_T_passenger.3" vType="passenger" speedFactor="0.90" vaporized=""/>
    <tripinfo id="flow_S_L_truck.0" depart="9.20" departLane="south_in_1" departPos="12.10" departSpeed="0.00" departDelay="9.20" arrival="157.00" arrivalLane="east_out_0" arrivalPos="189.60" arrivalSpeed="11.60" duration="147.80" routeLength="378.83" waitingTime="61.00" waitingCount="6" stopTime="0.00" timeLoss="114.22" rerouteNo="0" devices="tripinfo_flow_S_L_truck.0" vType="truck" speedFactor="0.84" vaporized=""/>
    <tripinfo id="flow_S_T_passenger.4" depart="42.80" departLane="south_in_0" departPos="5.10" departSpeed="13.89" departDelay="0.02" arrival="159.80" arrivalLane="north_out_0" arrivalPos="189.60" arrivalSpeed="13.87" duration="117.00" routeLength="394.90" waitingTime="31.00" waitingCount="4" stopTime="0.00" timeLoss="88.40" rerouteNo="0" devices="tripinfo_flow_S_T_passenger.4" vType="passenger" speedFactor="1.10" vaporized=""/>
    <tripinfo id="flow_W_L_bus.0" depart="16.80" departLane="west_in_1" departPos="15.10" departSpeed="0.00" departDelay="16.80" arrival="161.00" arrivalLane="south_out_0" arrivalPos="189.60" arrivalSpeed="11.08" duration="144.20" routeLength="375.83" waitingTime="53.80" waitingCount="11" stopTime="0.00" timeLoss="109.56" rerouteNo="0" devices="tripinfo_flow_W_L_bus.0" vType="bus" speedFactor="0.86" vaporized=""/>
    <tripinfo id="flow_N_R_passenger.1" depart="32.80" departLane="north_in_0" departPos="5.10" departSpeed="12.18" departDelay="0.12" arrival="165.60" arrivalLane="east_out_0" arrivalPos="189.60" arrivalSpeed="12.18" duration="132.80" routeLength="397.32" waitingTime="56.80" waitingCount="5" stopTime="0.00" timeLoss="99.36" rerouteNo="0" devices="tripinfo_flow_N_R_passenger.1" vType="passenger" speedFactor="0.88" vaporized=""/>
    <tripinfo id="flow_W_T_passenger.3" depart="42.80" departLane="west_in_1" departPos="5.10" departSpeed="13.89" departDelay="0.02" arrival="168.20" arrivalLane="east_out_0" arrivalPos="189.60" arrivalSpeed="13.39" duration="125.40" routeLength="394.90" waitingTime="35.40" waitingCount="6" stopTime="0.00" timeLoss="96.94" rerouteNo="0" devices="tripinfo_flow_W_T_passenger.3" vType="passenger" speedFactor="1.00" vaporized=""/>
    <tripinfo id="flow_W_L_passenger.1" depart="31.40" departLane="west_in_1" departPos="5.10" departSpeed="13.85" departDelay="0.03" arrival="170.20" arrivalLane="south_out_0" arrivalPos="189.60" arrivalSpeed="13.83" duration="138.80" routeLength="385.83" waitingTime="53.60" waitingCount="6" stopTime="0.00" timeLoss="110.18" rerouteNo="0" devices="tripinfo_flow_W_L_passenger.1" vType="passenger" speedFactor="1.00" vaporized=""/>
    <tripinfo id="flow_S_T_passenger.5" depart="53.60" departLane="south_in_0" departPos="5.10" departSpeed="13.89" departDelay="0.13" arrival="172.40" arrivalLane="north_out_0" arrivalPos="189.60" arrivalSpeed="13.87" duration="118.80" routeLength="394.90" waitingTime="27.40" waitingCount="4" stopTime="0.00" timeLoss="90.25" rerouteNo="0" devices="tripinfo_flow_S_T_passenger.5" vType="passenger" speedFactor="1.08" vaporized=""/>
    <tripinfo id="flow_N_T_passenger.3" depart="35.80" departLane="north_in_0" departPos="5.10" departSpeed="11.81" departDelay="0.15" arrival="174.60" arrivalLane="south_out_0" arrivalPos="189.60" arrivalSpeed="11.80" duration="138.80" routeLength="394.90" waitingTime="51.80" waitingCount="6" stopTime="0.00" timeLoss="105.25" rerouteNo="0" devices="tripinfo_flow_N_T_passenger.3" vType="passenger" speedFactor="0.85" vaporized=""/>
    <tripinfo id="flow_W_T_passenger.4" depart="57.20" departLane="west_in_1" departPos="5.10" departSpeed="13.89" departDelay="0.16" arrival="176.80" arrivalLane="east_out_1" arrivalPos="189.60" arrivalSpeed="13.88" duration="119.60" routeLength="394.90" waitingTime="38.40" waitingCount="4" stopTime="0.00" timeLoss="91.00" rerouteNo="0" devices="tripinfo_flow_W_T_passenger.4" vType="passenger" speedFactor="1.12" vaporized=""/>
    <tripinfo id="flow_E_T_passenger.2" depart="35.80" departLane="east_in_0" departPos="5.10" departSpeed="11.87" departDelay="0.15" arrival="179.40" arrivalLane="west_out_0" arrivalPos="189.60" arrivalSpeed="11.87" duration="143.60" routeLength="394.90" waitingTime="60.80" waitingCount="7" stopTime="0.00" timeLoss="110.23" rerouteNo="0" devices="tripinfo_flow_E_T_passenger.2" vType="passenger" speedFactor="0.85" vaporized=""/>
    <tripinfo id="flow_W_L_passenger.2" depart="62.80" departLane="west_in_1" departPos="5.10" departSpeed="13.02" departDelay="0.05" arrival="190.60" arrivalLane="south_out_0" arrivalPos="189.60" arrivalSpeed="13.01" duration="127.80" routeLength="385.83" waitingTime="42.20" waitingCount="6" stopTime="0.00" timeLoss="97.36" rerouteNo="0" devices="tripinfo_flow_W_L_passenger.2" vType="passenger" speedFactor="0.94" vaporized=""/>
    <tripinfo id="flow_S_R_passenger.2" depart="59.00" departLane="south_in_0" departPos="5.10" departSpeed="13.89" departDelay="0.18" arrival="190.80" arrivalLane="west_out_0" arrivalPos="189.60" arrivalSpeed="13.87" duration="131.80" routeLength="397.32" waitingTime="35.80" waitingCount="6" stopTime="0.00" timeLoss="102.49" rerouteNo="0" devices="tripinfo_flow_S_R_passenger.2" vType="passenger" speedFactor="1.02" vaporized=""/>
    <tripinfo id="flow_E_L_bus.0" depart="16.80" departLane="east_in_1" departPos="15.10" departSpeed="0.00" departDelay="16.80" arrival="195.20" arrivalLane="north_out_0" arrivalPos="189.60" arrivalSpeed="11.08" duration="178.40" routeLength="375.83" waitingTime="89.40" waitingCount="7" stopTime="0.00" timeLoss="143.67" rerouteNo="0" devices="tripinfo_flow_E_L_bus.0" vType="bus" speedFactor="0.82" vaporized=""/>
    <tripinfo id="flow_S_L_bus.0" depart="15.40" departLane="south_in_1" departPos="15.10" departSpeed="0.00" departDelay="15.40" arrival="195.20" arrivalLane="east_out_0" arrivalPos="189.60" arrivalSpeed="11.08" duration="179.80" routeLength="375.83" waitingTime="79.60" waitingCount="8" stopTime="0.00" timeLoss="145.05" rerouteNo="0" devices="tripinfo_flow_S_L_bus.0" vType="bus" speedFactor="0.81" vaporized=""/>
    <tripinfo id="flow_E_R_passenger.1" depart="49.20" departLane="east_in_0" departPos="5.10" departSpeed="13.89" departDelay="0.18" arrival="197.80" arrivalLane="south_out_0" arrivalPos="189.60" arrivalSpeed="13.87" duration="148.60" routeLength="397.32" waitingTime="60.00" waitingCount="8" stopTime="0.00" timeLoss="119.56" rerouteNo="0" devices="tripinfo_flow_E_R_passenger.1" vType="passenger" speedFactor="1.14" vaporized=""/>
    <tripinfo id="flow_W_T_passenger.5" depart="71.40" departLane="west_in_0" departPos="5.10" departSpeed="13.89" departDelay="0.10" arrival="203.00" arrivalLane="east_out_0" arrivalPos="189.60" arrivalSpeed="13.87" duration="131.60" routeLength="394.90" waitingTime="44.60" waitingCount="8" stopTime="0.00" timeLoss="103.08" rerouteNo="0" devices="tripinfo_flow_W_T_passenger.5" vType="passenger" speedFactor="1.02" vaporized=""/>
    <tripinfo id="flow_W_L_passenger.3" depart="94.20" departLane="west_in_1" departPos="5.10" departSpeed="13.89" departDelay="0.08" arrival="205.40" arrivalLane="south_out_0" arrivalPos="189.60" arrivalSpeed="13.87" duration="111.20" routeLength="385.83" waitingTime="33.40" waitingCount="4" stopTime="0.00" timeLoss="82.53" rerouteNo="0" devices="tripinfo_flow_W_L_passenger.3" vType="passenger" speedFactor="1.02" vaporized=""/>
    <tripinfo id="flow_S_T_passenger.1" depart="19.80" departLane="south_in_1" departPos="5.10" departSpeed="0.00" departDelay="9.11" arrival="207.80" arrivalLane="north_out_1" arrivalPos="189.60" arrivalSpeed="13.51" duration="188.00" routeLength="394.90" waitingTime="81.80" waitingCount="5" stopTime="0.00" timeLoss="158.74" rerouteNo="0" devices="tripinfo_flow_S_T_passenger.1" vType="passenger" speedFactor="0.97" vaporized=""/>
    <tripinfo id="flow_S_T_passenger.6" depart="64.20" departLane="south_in_1" departPos="5.10" departSpeed="12.26" departDelay="0.03" arrival="209.40" arrivalLane="north_out_0" arrivalPos="189.60" arrivalSpeed="12.25" duration="145.20" routeLength="394.90" waitingTime="39.20" waitingCount="5" stopTime="0.00" timeLoss="112.82" rerouteNo="0" devices="tripinfo_flow_S_T_passenger.6" vType="passenger" speedFactor="0.88" vaporized=""/>
    <tripinfo id="flow_S_L_passenger.1" depart="23.60" departLane="south_in_1" departPos="5.10" departSpeed="0.00" departDelay="0.07" arrival="210.20" arrivalLane="east_out_0" arrivalPos="189.60" arrivalSpeed="13.28" duration="186.60" routeLength="385.83" waitingTime="79.20" waitingCount="5" stopTime="0.00" timeLoss="156.78" rerouteNo="0" devices="tripinfo_flow_S_L_passenger.1" vType="passenger" speedFactor="0.96" vaporized=""/>
    <tripinfo id="flow_W_R_passenger.2" depart="78.60" departLane="west_in_0" departPos="5.10" departSpeed="13.27" departDelay="0.17" arrival="212.40" arrivalLane="north_out_0" arrivalPos="189.60" arrivalSpeed="13.01" duration="133.80" routeLength="397.32" waitingTime="41.20" waitingCount="4" stopTime="0.00" timeLoss="103.09" rerouteNo="0" devices="tripinfo_flow_W_R_passenger.2" vType="passenger" speedFactor="0.96" vaporized=""/>
    <tripinfo id="flow_S_L_passenger.2" depart="47.20" departLane="south_in_1" departPos="5.10" departSpeed="13.83" departDelay="0.14" arrival="213.00" arrivalLane="east_out_0" arrivalPos="189.60" arrivalSpeed="13.53" duration="165.80" routeLength="385.83" waitingTime="60.40" waitingCount="5" stopTime="0.00" timeLoss="137.08" rerouteNo="0" devices="tripinfo_flow_S_L_passenger.2" vType="passenger" speedFactor="1.00" vaporized=""/>
    <tripinfo id="flow_W_T_passenger.6" depart="85.60" departLane="west_in_0" departPos="5.10" departSpeed="13.64" departDelay="0.04" arrival="215.80" arrivalLane="east_out_0" arrivalPos="189.60" arrivalSpeed="13.33" duration="130.20" routeLength="394.90" waitingTime="40.40" waitingCount="4" stopTime="0.00" timeLoss="101.13" rerouteNo="0" devices="tripinfo_flow_W_T_passenger.6" vType="passenger" speedFactor="0.98" vaporized=""/>
    <tripinfo id="flow_E_T_passenger.3" depart="53.60" departLane="east_in_1" departPos="5.10" departSpeed="13.47" departDelay="0.13" arrival="217.00" arrivalLane="west_out_0" arrivalPos="189.60" arrivalSpeed="13.46" duration="163.40" routeLength="394.90" waitingTime="61.20" waitingCount="7" stopTime="0.00" timeLoss="133.89" rerouteNo="0" devices="tripinfo_flow_E_T_passenger.3" vType="passenger" speedFactor="0.97" vaporized=""/>
    <tripinfo id="flow_S_T_passenger.7" depart="75.00" departLane="south_in_0" departPos="5.10" departSpeed="13.51" departDelay="0.14" arrival="219.80" arrivalLane="north_out_0" arrivalPos="189.60" arrivalSpeed="13.50" duration="144.80" routeLength="394.90" waitingTime="37.40" waitingCount="6" stopTime="0.00" timeLoss="115.39" rerouteNo="0" devices="tripinfo_flow_S_T_passenger.7" vType="passenger" speedFactor="0.97" vaporized=""/>
    <tripinfo id="flow_E_L_passenger.1" depart="39.40" departLane="east_in_1" departPos="5.10" departSpeed="13.89" departDelay="0.18" arrival="237.40" arrivalLane="north_out_0" arrivalPos="189.60" arrivalSpeed="13.87" duration="198.00" routeLength="385.83" waitingTime="117.00" waitingCount="5" stopTime="0.00" timeLoss="169.62" rerouteNo="0" devices="tripinfo_flow_E_L_passenger.1" vType="passenger" speedFactor="1.17" vaporized=""/>